  5
Step 2
  C     -0.00002461     -0.00000012      0.00001339
  H     -0.00000129      0.00000065      1.09328426
  H      1.03074535     -0.00000094     -0.36443555
  H     -0.51535907     -0.89266627     -0.36442955
  H     -0.51535838      0.89266568     -0.36443155

