  3
Step 3
  O     -1.48098583      0.35458627     -0.00297928
  H     -0.50532147      0.34586319      0.00179252
  H     -1.79685270     -0.45535946      0.44008676
