  11
Step 18
 Pt     -0.02521075      0.07765605      1.92791241
  N      2.05085143      0.08321548      1.91934416
  N     -2.10123668      0.07033745      1.93663823
 Cl     -0.10350657     -0.17925824     -0.48592510
 Cl      0.05329483      0.33497436      4.34179073
  H      2.35149412      0.11424990      2.89657298
  H      2.38800256     -0.76162536      1.45797744
  H      2.38046839      0.90571675      1.41396447
  H     -2.40232686      0.04530255      0.95939057
  H     -2.42934620     -0.75620601      2.43638775
  H     -2.43956826      0.91140708      2.40401736

