Process 0 of 1 is on gollum409.lsa.umich.edu - thread support 0
initial socket setup ...start
initial socket setup ...done 
now start server 0 ... 

 Q-chem begins on Tue Feb  9 17:08:18 2016  

Host: gollum409.lsa.umich.edu
0
 Parallel job on  1  processors
Finally everything over in PARseQInput

--------------------------------------------------------------
User input:
--------------------------------------------------------------
 $molecule 
 0 1
 C -0.000025 -0.000000 0.000013 
 H -0.000001 0.000001 1.093284 
 H 1.030745 -0.000001 -0.364436 
 H -0.515359 -0.892666 -0.364430 
 H -0.515358 0.892666 -0.364432 
 $end 


 $rem 
 JOBTYPE OPT 
 EXCHANGE B3LYP
 CORRELATION NONE
 GEOM_OPT_MAX_CYCLES  285
 GEOM_OPT_TOL_DISPLACEMENT 2500 
 GEOM_OPT_TOL_GRADIENT     800 
 GEOM_OPT_TOL_ENERGY	5000 
 SCF_ALGORITHM rca_diis 
 SCF_MAX_CYCLES 250 
 SCF_CONVERGENCE 6 
 BASIS LANL2DZ 
 ECP LANL2DZ 
 $end 

--------------------------------------------------------------

 Q-Chem warning in module dnsncn.F, line  106, PE  0:

 Cn slipped through

 
 D(1),D(2),D(3)   11.3821473064232        11.3821530934787     
   11.3824543875018     
 ----------------------------------------------------
       Standard Nuclear Orientation (Angstroms)
    I     Atom         X            Y            Z
 ----------------------------------------------------
    1      C       0.000009     0.000000     0.000011
    2      H       1.072236    -0.003662    -0.213431
    3      H      -0.558651    -0.000575    -0.939781
    4      H      -0.259448    -0.890541     0.578681
    5      H      -0.254191     0.894778     0.574464
 ----------------------------------------------------
 Molecular Point Group                 C1    NOp =  1
 Largest Abelian Subgroup              C1    NOp =  1
 Nuclear Repulsion Energy =    13.3950979614 hartrees
 There are        5 alpha and        5 beta electrons
 Requested basis set is LANL2DZ
 There are 11 shells and 17 basis functions

Total QAlloc Memory Limit   2000 MB
Mega-Array Size        61 MB
MEM_STATIC part        62 MB
 A cutoff of  1.0D-10 yielded     66 shell pairs
 Requested basis set is LANL2DZ
 Compound shells will be simplified
 There are 13 shells and 17 basis functions
 A cutoff of  1.0D-10 yielded     91 shell pairs
 Smallest overlap matrix eigenvalue = 2.07E-02

  Scale SEOQF with 1.000000e+00/1.000000e+00/1.000000e+00

 length of FILE_MO_COEFS: 0 
 Guess from superposition of atomic densities
 Warning:  Energy on first SCF cycle will be non-variational
 A restricted hybrid HF-DFT SCF calculation will be
 performed using Relaxed Constraint Minimization + Pulay DIIS
 Exchange:     0.2000 Hartree-Fock + 0.0800 Slater + 0.7200 Becke88
 Correlation:  0.8100 LYP + 0.1900 VWN1RPA
 Using SG-1 standard quadrature grid
 ---------------------------------------
  Cycle       Energy         DIIS Error
 ---------------------------------------
    1     -40.4460261989      1.94E-01
    2     -40.4586273657      3.66E-02
    3     -40.4831788673      2.69E-03
    4     -40.5104273970      2.42E-03
    5     -40.5105317571      2.09E-04 Done RCA. Switching to DIIS
    6     -40.5106507746      1.66E-04
    7     -40.5106518651      4.38E-06
    8     -40.5106518658      7.33E-07 Convergence criterion met
 ---------------------------------------
 SCF time:  CPU 0.97 s  wall 0.93 s
 SCF   energy in the final basis set = -40.5106518658
 Total energy in the final basis set = -40.5106518658
 Analysis of SCF Wavefunction
 
 --------------------------------------------------------------
                    Orbital Energies (a.u.)
 --------------------------------------------------------------
 
 Alpha MOs
 -- Occupied --
-10.160  -0.693  -0.390  -0.390  -0.390
 -- Virtual --
  0.117   0.176   0.176   0.176   0.544   0.544   0.544   0.939
  0.939   0.939   0.945   1.110
 --------------------------------------------------------------
 
          Ground-State Mulliken Net Atomic Charges

     Atom                 Charge (a.u.)
  ----------------------------------------
      1 C                    -0.578157
      2 H                     0.144534
      3 H                     0.144541
      4 H                     0.144541
      5 H                     0.144541
  ----------------------------------------
  Sum of atomic charges =     0.000000

 -----------------------------------------------------------------
                    Cartesian Multipole Moments
 -----------------------------------------------------------------
    Charge (ESU x 10^10)
                 0.0000
    Dipole Moment (Debye)
         X       0.0000      Y       0.0000      Z      -0.0001
       Tot       0.0001
    Quadrupole Moments (Debye-Ang)
        XX      -8.2822     XY       0.0000     YY      -8.2822
        XZ       0.0000     YZ       0.0000     ZZ      -8.2823
    Octapole Moments (Debye-Ang^2)
       XXX       0.6504    XXY      -0.0041    XYY      -0.2598
       YYY       0.0064    XXZ      -0.2936    XYZ       0.0023
       YYZ       0.5832    XZZ      -0.3905    YZZ      -0.0023
       ZZZ      -0.2896
    Hexadecapole Moments (Debye-Ang^3)
      XXXX     -15.0081   XXXY      -0.0035   XXYY      -5.3635
      XYYY       0.0011   YYYY     -15.1615   XXXZ      -0.1157
      XXYZ      -0.0004   XYYZ      -0.2296   YYYZ       0.0028
      XXZZ      -5.1039   XYZZ       0.0024   YYZZ      -4.9503
      XZZZ       0.3451   YZZZ      -0.0024   ZZZZ     -15.4212
 -----------------------------------------------------------------
 Calculating analytic gradient of the SCF energy
 Gradient of SCF Energy
            1           2           3           4           5
    1   0.0000230   0.0000636  -0.0000593  -0.0000140  -0.0000133
    2  -0.0000007   0.0000007  -0.0000001  -0.0000571   0.0000573
    3  -0.0000125  -0.0000311  -0.0000474   0.0000455   0.0000455
 Max gradient component =       6.358E-05
 RMS gradient           =       3.875E-05
 Gradient time:  CPU 0.14 s  wall 0.17 s
 Geometry Optimization Parameters
   NAtoms,    NIC,     NZ,  NCons,   NDum,   NFix, NCnnct, MaxDiis
        5      20       0       0       0       0       0       0


** GEOMETRY OPTIMIZATION IN DELOCALIZED INTERNAL COORDINATES **
   Searching for a Minimum

   Optimization Cycle:   1

                       Coordinates (Angstroms)
     ATOM              X           Y           Z
      1  C         0.000009    0.000000    0.000011
      2  H         1.072236   -0.003662   -0.213431
      3  H        -0.558651   -0.000575   -0.939781
      4  H        -0.259448   -0.890541    0.578681
      5  H        -0.254191    0.894778    0.574464
   Point Group: c1    Number of degrees of freedom:     9


   Energy is    -40.510651866


 Attempting to Generate Delocalized Internal Coordinates

  9 Hessian modes will be used to form the next step
  Hessian Eigenvalues:
     0.160000    0.160000    0.160000    0.160000    0.160000    0.344338
     0.344374    0.344374    0.344374

 Minimum Search - Taking Simple RFO Step
 Searching for Lamda that Minimizes Along All modes
 Value Taken    Lamda =   0.00000000
 Step Taken.  Stepsize is  0.000434

                             Maximum     Tolerance    Cnvgd?
         Gradient           0.000144      0.000800     YES
         Displacement       0.000417      0.002500     YES
         Energy change     *********      0.000050      NO


                       Distance Matrix (Angstroms)
             C (  1)   H (  2)   H (  3)   H (  4)
   H (  2)  1.093271
   H (  3)  1.093302  1.785325
   H (  4)  1.093271  1.785323  1.785298
   H (  5)  1.093271  1.785323  1.785298  1.785332
 
 Final energy is   -40.5106518657579     


 ******************************
 **  OPTIMIZATION CONVERGED  **
 ******************************

Z-matrix Print:
$molecule
0,1
1 C 
2 H  1 1.093271
3 H  1 1.093271 2 109.473814
4 H  1 1.093271 2 109.472979 3 -120.004838 0
5 H  1 1.093302 2 109.468373 3 119.996354 0
$end

 Analysis of SCF Wavefunction
 
 --------------------------------------------------------------
                    Orbital Energies (a.u.)
 --------------------------------------------------------------
 
 Alpha MOs
 -- Occupied --
-10.160  -0.693  -0.390  -0.390  -0.390
 -- Virtual --
  0.117   0.176   0.176   0.176   0.544   0.544   0.544   0.939
  0.939   0.939   0.945   1.110
 --------------------------------------------------------------
 
          Ground-State Mulliken Net Atomic Charges

     Atom                 Charge (a.u.)
  ----------------------------------------
      1 C                    -0.578157
      2 H                     0.144534
      3 H                     0.144541
      4 H                     0.144541
      5 H                     0.144541
  ----------------------------------------
  Sum of atomic charges =     0.000000

 -----------------------------------------------------------------
                    Cartesian Multipole Moments
 -----------------------------------------------------------------
    Charge (ESU x 10^10)
                 0.0000
    Dipole Moment (Debye)
         X       0.0000      Y       0.0000      Z      -0.0001
       Tot       0.0001
    Quadrupole Moments (Debye-Ang)
        XX      -8.2822     XY       0.0000     YY      -8.2822
        XZ       0.0000     YZ       0.0000     ZZ      -8.2823
    Octapole Moments (Debye-Ang^2)
       XXX       0.6504    XXY      -0.0041    XYY      -0.2598
       YYY       0.0064    XXZ      -0.2936    XYZ       0.0023
       YYZ       0.5832    XZZ      -0.3905    YZZ      -0.0023
       ZZZ      -0.2896
    Hexadecapole Moments (Debye-Ang^3)
      XXXX     -15.0081   XXXY      -0.0035   XXYY      -5.3635
      XYYY       0.0011   YYYY     -15.1615   XXXZ      -0.1157
      XXYZ      -0.0004   XYYZ      -0.2296   YYYZ       0.0028
      XXZZ      -5.1039   XYZZ       0.0024   YYZZ      -4.9503
      XZZZ       0.3451   YZZZ      -0.0024   ZZZZ     -15.4212
 -----------------------------------------------------------------
 Total job time:  1.19s(wall), 1.19s(cpu) 
 Tue Feb  9 17:08:19 2016

        *************************************************************
        *                                                           *
        *  Thank you very much for using Q-Chem.  Have a nice day.  *
        *                                                           *
        *************************************************************


0 sent ACK to 0 
now end server 0 ... 
