Process 0 of 1 is on gollum409.lsa.umich.edu - thread support 0
initial socket setup ...start
initial socket setup ...done 
now start server 0 ... 

 Q-chem begins on Tue Feb  9 17:08:18 2016  

Host: gollum409.lsa.umich.edu
0
 Parallel job on  1  processors
Finally everything over in PARseQInput

--------------------------------------------------------------
User input:
--------------------------------------------------------------
 $molecule 
 0 1
 O -1.480986 0.354586 -0.002979 
 H -0.505321 0.345863 0.001793 
 H -1.796853 -0.455359 0.440087 
 $end 


 $rem 
 JOBTYPE OPT 
 EXCHANGE B3LYP
 CORRELATION NONE
 GEOM_OPT_MAX_CYCLES  285
 GEOM_OPT_TOL_DISPLACEMENT 2500 
 GEOM_OPT_TOL_GRADIENT     800 
 GEOM_OPT_TOL_ENERGY	5000 
 SCF_ALGORITHM rca_diis 
 SCF_MAX_CYCLES 250 
 SCF_CONVERGENCE 6 
 BASIS LANL2DZ 
 ECP LANL2DZ 
 $end 

--------------------------------------------------------------
 ----------------------------------------------------
       Standard Nuclear Orientation (Angstroms)
    I     Atom         X            Y            Z
 ----------------------------------------------------
    1      O      -0.000008    -0.114285     0.000000
    2      H      -0.790873     0.457162     0.000000
    3      H       0.790934     0.457119     0.000000
 ----------------------------------------------------
 Molecular Point Group                 Cs    NOp =  2
 Largest Abelian Subgroup              Cs    NOp =  2
 Nuclear Repulsion Energy =     9.0119460762 hartrees
 There are        5 alpha and        5 beta electrons
 Requested basis set is LANL2DZ
 There are 7 shells and 13 basis functions

Total QAlloc Memory Limit   2000 MB
Mega-Array Size        61 MB
MEM_STATIC part        62 MB
 A cutoff of  1.0D-10 yielded     28 shell pairs
 Requested basis set is LANL2DZ
 Compound shells will be simplified
 There are 9 shells and 13 basis functions
 A cutoff of  1.0D-10 yielded     45 shell pairs
 Smallest overlap matrix eigenvalue = 7.14E-02

  Scale SEOQF with 1.000000e+00/1.000000e+00/1.000000e+00

 length of FILE_MO_COEFS: 0 
 Guess from superposition of atomic densities
 Warning:  Energy on first SCF cycle will be non-variational
 A restricted hybrid HF-DFT SCF calculation will be
 performed using Relaxed Constraint Minimization + Pulay DIIS
 Exchange:     0.2000 Hartree-Fock + 0.0800 Slater + 0.7200 Becke88
 Correlation:  0.8100 LYP + 0.1900 VWN1RPA
 Using SG-1 standard quadrature grid
 ---------------------------------------
  Cycle       Energy         DIIS Error
 ---------------------------------------
    1     -76.3862909532      2.32E-01
    2     -76.3161447900      6.47E-02
    3     -76.3450636218      1.11E-02
    4     -76.3837366184      1.24E-02
    5     -76.3847453291      1.90E-03
    6     -76.3860041964      2.63E-03
    7     -76.3860489817      4.04E-04 Done RCA. Switching to DIIS
    8     -76.3861050391      5.73E-04
    9     -76.3861100575      6.42E-07 Convergence criterion met
 ---------------------------------------
 SCF time:  CPU 0.69 s  wall 0.65 s
 SCF   energy in the final basis set = -76.3861100575
 Total energy in the final basis set = -76.3861100575
 Analysis of SCF Wavefunction
 
 --------------------------------------------------------------
             Orbital Energies (a.u.) and Symmetries
 --------------------------------------------------------------
 
 Alpha MOs, Restricted
 -- Occupied --                  
-19.134  -1.006  -0.530  -0.349  -0.290
  1 A'    2 A'    3 A'    4 A'    1 A"                                         
 -- Virtual --                   
  0.053   0.142   0.822   0.851   0.891   0.945   1.071   1.409
  5 A'    6 A'    7 A'    8 A'    2 A"    9 A'   10 A'   11 A'                 
 
 Beta MOs, Restricted
 -- Occupied --                  
-19.134  -1.006  -0.530  -0.349  -0.290
  1 A'    2 A'    3 A'    4 A'    1 A"                                         
 -- Virtual --                   
  0.053   0.142   0.822   0.851   0.891   0.945   1.071   1.409
  5 A'    6 A'    7 A'    8 A'    2 A"    9 A'   10 A'   11 A'                 
 --------------------------------------------------------------
 
          Ground-State Mulliken Net Atomic Charges

     Atom                 Charge (a.u.)
  ----------------------------------------
      1 O                    -0.717699
      2 H                     0.358850
      3 H                     0.358849
  ----------------------------------------
  Sum of atomic charges =     0.000000

 -----------------------------------------------------------------
                    Cartesian Multipole Moments
 -----------------------------------------------------------------
    Charge (ESU x 10^10)
                 0.0000
    Dipole Moment (Debye)
         X       0.0001      Y       2.3986      Z       0.0000
       Tot       2.3986
    Quadrupole Moments (Debye-Ang)
        XX      -4.1154     XY       0.0000     YY      -6.2445
        XZ       0.0000     YZ       0.0000     ZZ      -7.2014
    Octapole Moments (Debye-Ang^2)
       XXX       0.0002    XXY       1.1805    XYY       0.0000
       YYY       1.2793    XXZ       0.0000    XYZ       0.0000
       YYZ       0.0000    XZZ       0.0000    YZZ       0.3664
       ZZZ       0.0000
    Hexadecapole Moments (Debye-Ang^3)
      XXXX      -6.0899   XXXY       0.0000   XXYY      -1.8117
      XYYY      -0.0001   YYYY      -6.3264   XXXZ       0.0000
      XXYZ       0.0000   XYYZ       0.0000   YYYZ       0.0000
      XXZZ      -2.1377   XYZZ       0.0000   YYZZ      -1.9613
      XZZZ       0.0000   YZZZ       0.0000   ZZZZ      -5.1961
 -----------------------------------------------------------------
 Calculating analytic gradient of the SCF energy
 Gradient of SCF Energy
            1           2           3
    1  -0.0000274   0.0000920  -0.0000646
    2   0.0000074  -0.0000136   0.0000062
    3  -0.0000000   0.0000000   0.0000000
 Max gradient component =       9.199E-05
 RMS gradient           =       3.897E-05
 Gradient time:  CPU 0.08 s  wall 0.08 s
 Geometry Optimization Parameters
   NAtoms,    NIC,     NZ,  NCons,   NDum,   NFix, NCnnct, MaxDiis
        3       9       0       0       0       0       0       0


** GEOMETRY OPTIMIZATION IN DELOCALIZED INTERNAL COORDINATES **
   Searching for a Minimum

   Optimization Cycle:   1

                       Coordinates (Angstroms)
     ATOM              X           Y           Z
      1  O        -0.000008   -0.114285    0.000000
      2  H        -0.790873    0.457162    0.000000
      3  H         0.790934    0.457119    0.000000
   Point Group: cs    Number of degrees of freedom:     3


   Energy is    -76.386110057


 Attempting to Generate Delocalized Internal Coordinates

  3 Hessian modes will be used to form the next step
  Hessian Eigenvalues:
     0.160000    0.522189    0.522260

 Minimum Search - Taking Simple RFO Step
 Searching for Lamda that Minimizes Along All modes
 Value Taken    Lamda =   0.00000000
 Step Taken.  Stepsize is  0.000527

                             Maximum     Tolerance    Cnvgd?
         Gradient           0.000120      0.000800     YES
         Displacement       0.000497      0.002500     YES
         Energy change     *********      0.000050      NO


                       Distance Matrix (Angstroms)
             O (  1)   H (  2)
   H (  2)  0.975716
   H (  3)  0.975751  1.581807
 
 Final energy is   -76.3861100574571     


 ******************************
 **  OPTIMIZATION CONVERGED  **
 ******************************

Z-matrix Print:
$molecule
0,1
1 O 
2 H  1 0.975716
3 H  1 0.975751 2 108.303969
$end

 Analysis of SCF Wavefunction
 
 --------------------------------------------------------------
             Orbital Energies (a.u.) and Symmetries
 --------------------------------------------------------------
 
 Alpha MOs, Restricted
 -- Occupied --                  
-19.134  -1.006  -0.530  -0.349  -0.290
  1 A'    2 A'    3 A'    4 A'    1 A"                                         
 -- Virtual --                   
  0.053   0.142   0.822   0.851   0.891   0.945   1.071   1.409
  5 A'    6 A'    7 A'    8 A'    2 A"    9 A'   10 A'   11 A'                 
 
 Beta MOs, Restricted
 -- Occupied --                  
-19.134  -1.006  -0.530  -0.349  -0.290
  1 A'    2 A'    3 A'    4 A'    1 A"                                         
 -- Virtual --                   
  0.053   0.142   0.822   0.851   0.891   0.945   1.071   1.409
  5 A'    6 A'    7 A'    8 A'    2 A"    9 A'   10 A'   11 A'                 
 --------------------------------------------------------------
 
          Ground-State Mulliken Net Atomic Charges

     Atom                 Charge (a.u.)
  ----------------------------------------
      1 O                    -0.717699
      2 H                     0.358850
      3 H                     0.358849
  ----------------------------------------
  Sum of atomic charges =     0.000000

 -----------------------------------------------------------------
                    Cartesian Multipole Moments
 -----------------------------------------------------------------
    Charge (ESU x 10^10)
                 0.0000
    Dipole Moment (Debye)
         X       0.0001      Y       2.3986      Z       0.0000
       Tot       2.3986
    Quadrupole Moments (Debye-Ang)
        XX      -4.1154     XY       0.0000     YY      -6.2445
        XZ       0.0000     YZ       0.0000     ZZ      -7.2014
    Octapole Moments (Debye-Ang^2)
       XXX       0.0002    XXY       1.1805    XYY       0.0000
       YYY       1.2793    XXZ       0.0000    XYZ       0.0000
       YYZ       0.0000    XZZ       0.0000    YZZ       0.3664
       ZZZ       0.0000
    Hexadecapole Moments (Debye-Ang^3)
      XXXX      -6.0899   XXXY       0.0000   XXYY      -1.8117
      XYYY      -0.0001   YYYY      -6.3264   XXXZ       0.0000
      XXYZ       0.0000   XYYZ       0.0000   YYYZ       0.0000
      XXZZ      -2.1377   XYZZ       0.0000   YYZZ      -1.9613
      XZZZ       0.0000   YZZZ       0.0000   ZZZZ      -5.1961
 -----------------------------------------------------------------
 Total job time:  0.83s(wall), 0.85s(cpu) 
 Tue Feb  9 17:08:19 2016

        *************************************************************
        *                                                           *
        *  Thank you very much for using Q-Chem.  Have a nice day.  *
        *                                                           *
        *************************************************************


0 sent ACK to 0 
now end server 0 ... 
